 Entering Gaussian System, Link 0=g09
 Input=small.com
 Output=small.log
 Initial command:
 /opt/programs/gaussian/g09/d_pgi133/l1.exe "/scratch/users/hfernandes/lixo/Gau-6898.inp" -scrdir="/scratch/users/hfernandes/lixo/"
 Entering Link 1 = /opt/programs/gaussian/g09/d_pgi133/l1.exe PID=      6900.
  
 Copyright (c) 1988,1990,1992,1993,1995,1998,2003,2009,2013,
            Gaussian, Inc.  All Rights Reserved.
  
 This is part of the Gaussian(R) 09 program.  It is based on
 the Gaussian(R) 03 system (copyright 2003, Gaussian, Inc.),
 the Gaussian(R) 98 system (copyright 1998, Gaussian, Inc.),
 the Gaussian(R) 94 system (copyright 1995, Gaussian, Inc.),
 the Gaussian 92(TM) system (copyright 1992, Gaussian, Inc.),
 the Gaussian 90(TM) system (copyright 1990, Gaussian, Inc.),
 the Gaussian 88(TM) system (copyright 1988, Gaussian, Inc.),
 the Gaussian 86(TM) system (copyright 1986, Carnegie Mellon
 University), and the Gaussian 82(TM) system (copyright 1983,
 Carnegie Mellon University). Gaussian is a federally registered
 trademark of Gaussian, Inc.
  
 This software contains proprietary and confidential information,
 including trade secrets, belonging to Gaussian, Inc.
  
 This software is provided under written license and may be
 used, copied, transmitted, or stored only in accord with that
 written license.
  
 The following legend is applicable only to US Government
 contracts under FAR:
  
                    RESTRICTED RIGHTS LEGEND
  
 Use, reproduction and disclosure by the US Government is
 subject to restrictions as set forth in subparagraphs (a)
 and (c) of the Commercial Computer Software - Restricted
 Rights clause in FAR 52.227-19.
  
 Gaussian, Inc.
 340 Quinnipiac St., Bldg. 40, Wallingford CT 06492
  
  
 ---------------------------------------------------------------
 Warning -- This program may not be used in any manner that
 competes with the business of Gaussian, Inc. or will provide
 assistance to any competitor of Gaussian, Inc.  The licensee
 of this program is prohibited from giving any competitor of
 Gaussian, Inc. access to this program.  By using this program,
 the user acknowledges that Gaussian, Inc. is engaged in the
 business of creating and licensing software in the field of
 computational chemistry and represents and warrants to the
 licensee that it is not a competitor of Gaussian, Inc. and that
 it will not use this program in any manner prohibited above.
 ---------------------------------------------------------------
  

 Cite this work as:
 Gaussian 09, Revision D.01,
 M. J. Frisch, G. W. Trucks, H. B. Schlegel, G. E. Scuseria, 
 M. A. Robb, J. R. Cheeseman, G. Scalmani, V. Barone, B. Mennucci, 
 G. A. Petersson, H. Nakatsuji, M. Caricato, X. Li, H. P. Hratchian, 
 A. F. Izmaylov, J. Bloino, G. Zheng, J. L. Sonnenberg, M. Hada, 
 M. Ehara, K. Toyota, R. Fukuda, J. Hasegawa, M. Ishida, T. Nakajima, 
 Y. Honda, O. Kitao, H. Nakai, T. Vreven, J. A. Montgomery, Jr., 
 J. E. Peralta, F. Ogliaro, M. Bearpark, J. J. Heyd, E. Brothers, 
 K. N. Kudin, V. N. Staroverov, T. Keith, R. Kobayashi, J. Normand, 
 K. Raghavachari, A. Rendell, J. C. Burant, S. S. Iyengar, J. Tomasi, 
 M. Cossi, N. Rega, J. M. Millam, M. Klene, J. E. Knox, J. B. Cross, 
 V. Bakken, C. Adamo, J. Jaramillo, R. Gomperts, R. E. Stratmann, 
 O. Yazyev, A. J. Austin, R. Cammi, C. Pomelli, J. W. Ochterski, 
 R. L. Martin, K. Morokuma, V. G. Zakrzewski, G. A. Voth, 
 P. Salvador, J. J. Dannenberg, S. Dapprich, A. D. Daniels, 
 O. Farkas, J. B. Foresman, J. V. Ortiz, J. Cioslowski, 
 and D. J. Fox, Gaussian, Inc., Wallingford CT, 2013.
 
 ******************************************
 Gaussian 09:  ES64L-G09RevD.01 24-Apr-2013
                15-Nov-2018 
 ******************************************
 %mem=6GB
 %nprocshared=4
 Will use up to    4 processors via shared memory.
 -----------------------------------
 #p amber=softonly geom=connectivity
 -----------------------------------
 1/38=1,56=2,57=2,64=303/1;
 2/12=2,17=6,18=5,40=1/2;
 3/5=30,11=9,16=1,25=1,30=1,41=10300000,43=2/1;
 4/20=11,24=3/2;
 99/5=1,9=1/99;
 Leave Link    1 at Thu Nov 15 18:29:43 2018, MaxMem=   805306368 cpu:         0.1
 (Enter /opt/programs/gaussian/g09/d_pgi133/l101.exe)
 -----------
 optimizacao
 -----------
 Symbolic Z-matrix:
 Charge = -2 Multiplicity = 1
 N-NJ--0.269300(PDBName=N1,ResName=PLT,ResNum=821) -1   -2.29417   0.31273   3.43198  L 
 C-CK--0.294100(PDBName=C10,ResName=PLT,ResNum=821) -1   -2.83462   0.60477   2.21071  L 
 C-CX-0.086800(PDBName=C8,ResName=PLT,ResNum=821) -1   -2.03329   0.47174   1.1556   L 
 C-CY-0.161200(PDBName=C9,ResName=PLT,ResNum=821) -1   -2.5583    0.80009  -0.15607  L 
 O-OZ--0.552300(PDBName=O15,ResName=PLT,ResNum=821) -1   -2.59248  -0.39843  -0.94938  L 
 P-P8-1.345300(PDBName=P11,ResName=PLT,ResNum=821) -1   -2.78509  -0.27403  -2.5418   L 
 O-O9--0.893800(PDBName=O12,ResName=PLT,ResNum=821) -1   -3.70939   0.8562   -2.93459  L 
 O-O9--0.893800(PDBName=O13,ResName=PLT,ResNum=821) -1   -3.32372  -1.44007  -3.17624  L 
 O-O9--0.893800(PDBName=O14,ResName=PLT,ResNum=821) -1   -1.45647   0.02523  -3.0746   L 
 H-HI-0.033200(PDBName=H32,ResName=PLT,ResNum=821) -1   -2.01917   1.58514  -0.69207  L 
 H-HI-0.033200(PDBName=H33,ResName=PLT,ResNum=821) -1   -3.56993   1.17766   0.01513  L 
 H-HV-0.190700(PDBName=H34,ResName=PLT,ResNum=821) -1   -3.86228   0.94014   2.29128  L 
 H-H5-0.363700(PDBName=H35,ResName=PLT,ResNum=821) -1   -2.93443   0.35977   4.21333  L 
 C-CX-0.237800(PDBName=C2,ResName=PLT,ResNum=821) -1   -1.02918  -0.02584   3.74481  L 
 C-CY--0.425300(PDBName=C3,ResName=PLT,ResNum=821) -1   -0.68789  -0.46481   5.06697  L 
 H-H6-0.125100(PDBName=H28,ResName=PLT,ResNum=821) -1   -0.14187   0.39458   5.46246  L 
 H-H6-0.125100(PDBName=H29,ResName=PLT,ResNum=821) -1   -0.14404  -1.40513   4.95142  L 
 H-H6-0.125100(PDBName=H30,ResName=PLT,ResNum=821) -1   -1.52706  -0.7241    5.71566  L 
 C-C7-0.447600(PDBName=C4,ResName=PLT,ResNum=821) -1   -0.02071  -0.05658   2.66454  L 
 O-O9--0.659700(PDBName=O5,ResName=PLT,ResNum=821) -1    1.16214  -0.3199    2.89457  L 
 C-CX--0.218600(PDBName=C6,ResName=PLT,ResNum=821) -1   -0.63574   0.0979    1.32421  L 
 C-CF-0.297500(PDBName=C7,ResName=PLT,ResNum=821) -1    0.12928   0.02768   0.17623  L 
 H-HV-0.187000(PDBName=H31,ResName=PLT,ResNum=821) -1   -0.39024   0.11356  -0.77135  L 
 N-NG--0.366100(PDBName=N16,ResName=PLT,ResNum=821) -1    1.46225  -0.24152   0.11374  L 
 H-H5-0.375600(PDBName=H27,ResName=PLT,ResNum=821) -1    1.84268  -0.59285   0.98583  L 
 C-CY--0.003300(PDBName=C17,ResName=PLT,ResNum=821) -1    2.51846  -0.04822  -1.02752  L 
 C-C7-0.858500(PDBName=C19,ResName=PLT,ResNum=821) -1    3.48549  -1.22162  -0.80204  L 
 O-O9--0.804700(PDBName=O20,ResName=PLT,ResNum=821) -1    4.37144  -1.4929   -1.58158  L 
 O-O9--0.804700(PDBName=O21,ResName=PLT,ResNum=821) -1    3.45498  -1.89029   0.17402  L 
 H-HI-0.012400(PDBName=H26,ResName=PLT,ResNum=821) -1    2.18625  -0.15469  -2.06301  L 
 C-CY-0.645200(PDBName=C18,ResName=PLT,ResNum=821) -1    3.31909   1.28851  -0.93325  L 
 H-HI--0.053600(PDBName=H36,ResName=PLT,ResNum=821) -1    2.55864   2.07115  -0.87809  L 
 O-OH--0.783000(PDBName=O37,ResName=PLT,ResNum=821) -1    4.109     1.24525   0.2378   L 
 H-HQ-0.457900(PDBName=H38,ResName=PLT,ResNum=821) -1    4.0743    2.11909   0.66683  L 
 C-CY--0.461900(PDBName=C22,ResName=PLT,ResNum=821) -1    4.1044    1.75274  -2.12442  L 
 H-H6-0.089600(PDBName=H23,ResName=PLT,ResNum=821) -1    5.11103   1.34786  -1.99872  L 
 H-H6-0.089600(PDBName=H24,ResName=PLT,ResNum=821) -1    3.57436   1.50065  -3.04496  L 
 H-H6-0.089600(PDBName=H25,ResName=PLT,ResNum=821) -1    4.17557   2.84029  -2.06549  L 
 
 NAtoms=     38 NQM=        0 NQMF=      38 NMMI=      0 NMMIF=      0
                NMic=       0 NMicF=      0.
                    Isotopes and Nuclear Properties:
 (Nuclear quadrupole moments (NQMom) in fm**2, nuclear magnetic moments (NMagM)
  in nuclear magnetons)

  Atom         1           2           3           4           5           6           7           8           9          10
 IAtWgt=          14          12          12          12          16          31          16          16          16           1
 AtmWgt=  14.0030740  12.0000000  12.0000000  12.0000000  15.9949146  30.9737634  15.9949146  15.9949146  15.9949146   1.0078250
 NucSpn=           2           0           0           0           0           1           0           0           0           1
 AtZEff=   0.0000000   0.0000000   0.0000000   0.0000000   0.0000000   0.0000000   0.0000000   0.0000000   0.0000000   0.0000000
 NQMom=    2.0440000   0.0000000   0.0000000   0.0000000   0.0000000   0.0000000   0.0000000   0.0000000   0.0000000   0.0000000
 NMagM=    0.4037610   0.0000000   0.0000000   0.0000000   0.0000000   1.1316000   0.0000000   0.0000000   0.0000000   2.7928460
 AtZNuc=   7.0000000   6.0000000   6.0000000   6.0000000   8.0000000  15.0000000   8.0000000   8.0000000   8.0000000   1.0000000

  Atom        11          12          13          14          15          16          17          18          19          20
 IAtWgt=           1           1           1          12          12           1           1           1          12          16
 AtmWgt=   1.0078250   1.0078250   1.0078250  12.0000000  12.0000000   1.0078250   1.0078250   1.0078250  12.0000000  15.9949146
 NucSpn=           1           1           1           0           0           1           1           1           0           0
 AtZEff=   0.0000000   0.0000000   0.0000000   0.0000000   0.0000000   0.0000000   0.0000000   0.0000000   0.0000000   0.0000000
 NQMom=    0.0000000   0.0000000   0.0000000   0.0000000   0.0000000   0.0000000   0.0000000   0.0000000   0.0000000   0.0000000
 NMagM=    2.7928460   2.7928460   2.7928460   0.0000000   0.0000000   2.7928460   2.7928460   2.7928460   0.0000000   0.0000000
 AtZNuc=   1.0000000   1.0000000   1.0000000   6.0000000   6.0000000   1.0000000   1.0000000   1.0000000   6.0000000   8.0000000

  Atom        21          22          23          24          25          26          27          28          29          30
 IAtWgt=          12          12           1          14           1          12          12          16          16           1
 AtmWgt=  12.0000000  12.0000000   1.0078250  14.0030740   1.0078250  12.0000000  12.0000000  15.9949146  15.9949146   1.0078250
 NucSpn=           0           0           1           2           1           0           0           0           0           1
 AtZEff=   0.0000000   0.0000000   0.0000000   0.0000000   0.0000000   0.0000000   0.0000000   0.0000000   0.0000000   0.0000000
 NQMom=    0.0000000   0.0000000   0.0000000   2.0440000   0.0000000   0.0000000   0.0000000   0.0000000   0.0000000   0.0000000
 NMagM=    0.0000000   0.0000000   2.7928460   0.4037610   2.7928460   0.0000000   0.0000000   0.0000000   0.0000000   2.7928460
 AtZNuc=   6.0000000   6.0000000   1.0000000   7.0000000   1.0000000   6.0000000   6.0000000   8.0000000   8.0000000   1.0000000

  Atom        31          32          33          34          35          36          37          38
 IAtWgt=          12           1          16           1          12           1           1           1
 AtmWgt=  12.0000000   1.0078250  15.9949146   1.0078250  12.0000000   1.0078250   1.0078250   1.0078250
 NucSpn=           0           1           0           1           0           1           1           1
 AtZEff=   0.0000000   0.0000000   0.0000000   0.0000000   0.0000000   0.0000000   0.0000000   0.0000000
 NQMom=    0.0000000   0.0000000   0.0000000   0.0000000   0.0000000   0.0000000   0.0000000   0.0000000
 NMagM=    0.0000000   2.7928460   0.0000000   2.7928460   0.0000000   2.7928460   2.7928460   2.7928460
 AtZNuc=   6.0000000   1.0000000   8.0000000   1.0000000   6.0000000   1.0000000   1.0000000   1.0000000
 Generating MM parameters.
 I=    1 IAn=  7 Valence= 4.
          JB=  1 J=    2 IAn=  6 IBT=12 Dist= 1.37D+00
          JB=  2 J=   13 IAn=  1 IBT= 1 Dist= 1.01D+00
          JB=  3 J=   14 IAn=  6 IBT=12 Dist= 1.35D+00
 I=    2 IAn=  6 Valence= 5.
          JB=  1 J=    1 IAn=  7 IBT=12 Dist= 1.37D+00
          JB=  2 J=    3 IAn=  6 IBT= 2 Dist= 1.33D+00
          JB=  3 J=   12 IAn=  1 IBT= 1 Dist= 1.08D+00
 I=    6 IAn= 15 Valence= 7.
          JB=  1 J=    5 IAn=  8 IBT= 1 Dist= 1.61D+00
          JB=  2 J=    7 IAn=  8 IBT= 2 Dist= 1.51D+00
          JB=  3 J=    8 IAn=  8 IBT= 2 Dist= 1.43D+00
          JB=  4 J=    9 IAn=  8 IBT= 2 Dist= 1.46D+00
 I=   15 IAn=  6 Valence= 5.
          JB=  1 J=   14 IAn=  6 IBT=12 Dist= 1.43D+00
          JB=  2 J=   16 IAn=  1 IBT= 1 Dist= 1.09D+00
          JB=  3 J=   17 IAn=  1 IBT= 1 Dist= 1.09D+00
          JB=  4 J=   18 IAn=  1 IBT= 1 Dist= 1.09D+00
 I=   22 IAn=  6 Valence= 5.
          JB=  1 J=   21 IAn=  6 IBT= 2 Dist= 1.38D+00
          JB=  2 J=   23 IAn=  1 IBT= 1 Dist= 1.08D+00
          JB=  3 J=   24 IAn=  7 IBT=12 Dist= 1.36D+00
 I=   24 IAn=  7 Valence= 4.
          JB=  1 J=   22 IAn=  6 IBT=12 Dist= 1.36D+00
          JB=  2 J=   25 IAn=  1 IBT= 1 Dist= 1.01D+00
          JB=  3 J=   26 IAn=  6 IBT= 1 Dist= 1.57D+00
 I=   27 IAn=  6 Valence= 5.
          JB=  1 J=   26 IAn=  6 IBT= 1 Dist= 1.54D+00
          JB=  2 J=   28 IAn=  8 IBT= 2 Dist= 1.21D+00
          JB=  3 J=   29 IAn=  8 IBT= 2 Dist= 1.18D+00
 Read MM parameter file:
 Define NJ         1
 Define CX         2
 Define CY         3
 Define OZ         4
 Define P8         5
 Define O9         6
 Define HI         7
 Define HV         8
 Define H6         9
 Define C7        10
 Define CF        11
 Define NG        12
 Define HQ        13
 Include all MM classes

 MM sanity checks:
 All charges sum to:               -2.00030000
 Charges of atoms sum to:          -2.00030000
 Residue   1 PDB Number   821_0 PLT has    38 atoms, and a charge of  -2.00030000
 WARNING -- The following centers have non-zero partial charges, but zero Vanderwaals
 parameters.  These centers can collapse onto other centers with non-zero charge.
   Center  Layer   Charge
     34 H    R    0.457900
 MMInit generated parameter data with length LenPar=       14769.
 MM Charge=             -2.0003 electrons
 MM Dipole moment (Debye):
    X=              0.3599    Y=             13.3634    Z=             29.1865  Tot=             32.1024
 MM Quadrupole moment (Debye-Ang):
   XX=           -141.1822   YY=            -18.7925   ZZ=            -68.2287
   XY=             29.3831   XZ=            -80.7397   YZ=             -5.4426
 MM Traceless Quadrupole moment (Debye-Ang):
   XX=            -65.1144   YY=             57.2753   ZZ=              7.8391
   XY=             29.3831   XZ=            -80.7397   YZ=             -5.4426
 MM Octapole moment (Debye-Ang**2):
  XXX=           -134.6274  YYY=             59.9687  ZZZ=            394.5208  XYY=             -3.2109
  XXY=            180.6728  XXZ=            360.5361  XZZ=             99.9619  YZZ=             41.1642
  YYZ=             53.7438  XYZ=             -3.2609
 MM Hexadecapole moment (Debye-Ang**3):
 XXXX=          -2389.7217 YYYY=            -25.5746 ZZZZ=           -220.0925 XXXY=            538.8996
 XXXZ=           -710.4637 YYYX=            156.2305 YYYZ=            -43.4519 ZZZX=          -1112.3631
 ZZZY=            -62.0616 XXYY=           -282.6495 XXZZ=           -704.1953 YYZZ=            -94.9781
 XXYZ=            -89.0481 YYXZ=            -80.4635 ZZXY=            -18.5207
 Center=      0.29182391      0.29425671      0.43899840
 Residue   1 PDB Number   821_0 PLT charge   -2.00030000 layers R        AvRTP=      0.00000000    180.00000000     90.00000000
 Leave Link  101 at Thu Nov 15 18:29:43 2018, MaxMem=   805306368 cpu:         1.3
 (Enter /opt/programs/gaussian/g09/d_pgi133/l202.exe)
                          Input orientation:                          
 ---------------------------------------------------------------------
 Center     Atomic      Atomic             Coordinates (Angstroms)
 Number     Number       Type             X           Y           Z
 ---------------------------------------------------------------------
      1          7    90000001       -2.294172    0.312729    3.431982
      2          6    20001012       -2.834621    0.604768    2.210710
      3          6    90000002       -2.033287    0.471741    1.155601
      4          6    90000003       -2.558297    0.800086   -0.156075
      5          8    90000004       -2.592477   -0.398429   -0.949379
      6         15    90000005       -2.785091   -0.274030   -2.541798
      7          8    90000006       -3.709395    0.856195   -2.934593
      8          8    90000006       -3.323724   -1.440073   -3.176235
      9          8    90000006       -1.456471    0.025228   -3.074600
     10          1    90000007       -2.019168    1.585143   -0.692068
     11          1    90000007       -3.569932    1.177660    0.015132
     12          1    90000008       -3.862276    0.940137    2.291281
     13          1    20001040       -2.934427    0.359772    4.213326
     14          6    90000002       -1.029176   -0.025843    3.744809
     15          6    90000003       -0.687892   -0.464805    5.066968
     16          1    90000009       -0.141870    0.394579    5.462457
     17          1    90000009       -0.144036   -1.405132    4.951415
     18          1    90000009       -1.527062   -0.724095    5.715664
     19          6    90000010       -0.020706   -0.056575    2.664543
     20          8    90000006        1.162142   -0.319899    2.894575
     21          6    90000002       -0.635738    0.097899    1.324212
     22          6    90000011        0.129285    0.027680    0.176226
     23          1    90000008       -0.390236    0.113562   -0.771349
     24          7    90000012        1.462246   -0.241523    0.113739
     25          1    20001040        1.842679   -0.592846    0.985832
     26          6    90000003        2.518461   -0.048219   -1.027523
     27          6    90000010        3.485491   -1.221618   -0.802041
     28          8    90000006        4.371439   -1.492899   -1.581576
     29          8    90000006        3.454980   -1.890288    0.174018
     30          1    90000007        2.186249   -0.154688   -2.063005
     31          6    90000003        3.319092    1.288512   -0.933247
     32          1    90000007        2.558642    2.071146   -0.878094
     33          8    20001022        4.108998    1.245251    0.237804
     34          1    90000013        4.074299    2.119086    0.666831
     35          6    90000003        4.104404    1.752736   -2.124420
     36          1    90000009        5.111026    1.347861   -1.998724
     37          1    90000009        3.574358    1.500648   -3.044963
     38          1    90000009        4.175574    2.840295   -2.065494
 ---------------------------------------------------------------------
                    Distance matrix (angstroms):
                    1          2          3          4          5
     1  N    0.000000
     2  C    1.367069   0.000000
     3  C    2.296793   1.331573   0.000000
     4  C    3.630624   2.390852   1.450496   0.000000
     5  O    4.448714   3.324335   2.345385   1.437685   0.000000
     6  P    6.022569   4.833329   3.846055   2.626183   1.608842
     7  O    6.544577   5.225188   4.436984   3.008046   2.600511
     8  O    6.913814   5.782713   4.907654   3.837390   2.564884
     9  O    6.566583   5.492692   4.292632   3.214376   2.446744
    10  H    4.324633   3.170523   2.157253   1.092823   2.080733
    11  H    3.748405   2.385257   2.039674   1.093288   2.090396
    12  H    2.038085   1.083992   2.203263   2.776603   3.729078
    13  H    1.011256   2.020014   3.189714   4.407609   5.229276
    14  C    1.346367   2.451685   2.821316   4.270510   4.961666
    15  C    2.420304   3.729697   4.240990   5.690214   6.310965
    16  H    2.960056   4.227167   4.704510   6.129555   6.909846
    17  H    3.143693   4.334791   4.636823   6.064495   6.467433
    18  H    2.622721   3.969923   4.741357   6.153364   6.757512
    19  C    2.427755   2.925997   2.570313   3.889617   4.448742
    20  O    3.554592   4.158941   3.723102   4.939888   5.373948
    21  C    2.690585   2.424434   1.456479   2.525974   3.040458
    22  C    4.068703   3.641002   2.415177   2.816049   2.975995
    23  H    4.618726   3.887027   2.557547   2.355922   2.267972
    24  N    5.042679   4.855570   3.716581   4.162033   4.194714
    25  H    4.890527   4.981139   4.023093   4.755292   4.842876
    26  C    6.571065   6.290312   5.074918   5.220394   5.123519
    27  C    7.327051   7.235756   6.095633   6.405617   6.135230
    28  O    8.533840   8.408861   7.236882   7.437142   7.077688
    29  O    6.965656   7.066293   6.055061   6.595952   6.329250
    30  H    7.105458   6.637059   5.343812   5.201798   4.912820
    31  C    7.177473   6.944074   5.803306   5.948636   6.147576
    32  H    6.724477   6.385786   5.270657   5.321651   5.712960
    33  O    7.216159   7.246821   6.258461   6.693738   7.001490
    34  H    7.174009   7.239468   6.344702   6.812361   7.307251
    35  C    8.595870   8.262036   7.076067   7.012382   7.131371
    36  H    9.241267   9.022462   7.858661   7.906575   7.968351
    37  H    8.820522   8.336649   7.081601   6.815125   6.784381
    38  H    8.858241   8.510366   7.384812   7.290634   7.585615
                    6          7          8          9         10
     6  P    0.000000
     7  O    1.511964   0.000000
     8  O    1.432583   2.340936   0.000000
     9  O    1.462417   2.405364   2.375725   0.000000
    10  H    2.732154   2.901233   4.126122   2.902830   0.000000
    11  H    3.043234   2.970465   4.134969   3.916792   1.752439
    12  H    5.098351   5.228783   5.987418   5.951272   3.565592
    13  H    6.786436   7.206925   7.615551   7.443799   5.138300
    14  C    6.531941   7.250929   7.427371   6.832973   4.822990
    15  C    7.894806   8.654450   8.709142   8.192434   6.256283
    16  H    8.455870   9.135139   9.387073   8.645573   6.543688
    17  H    8.025136   8.945083   8.727562   8.257441   6.656333
    18  H    8.364860   9.060179   9.099807   8.822426   6.828892
    19  C    5.898737   6.766824   6.851181   5.916576   4.237443
    20  O    6.718400   7.687279   7.631023   6.527426   5.158868
    21  C    4.438928   5.306580   5.463025   4.475313   2.862019
    22  C    3.996532   5.009900   5.031557   3.616973   2.792038
    23  H    3.003339   4.030874   4.099099   2.539611   2.196646
    24  N    5.009272   6.102719   5.930090   4.330770   4.013263
    25  H    5.827698   6.949459   6.688222   5.268160   4.740553
    26  C    5.520116   6.575794   6.378507   4.471689   4.834302
    27  C    6.576083   7.786621   7.214563   5.580514   6.179909
    28  O    7.322813   8.523425   7.858834   6.204705   7.148806
    29  O    6.994743   8.278581   7.574808   6.192340   6.541791
    30  H    4.995769   6.044847   5.766394   3.784852   4.753106
    31  C    6.503078   7.320650   7.523509   5.383984   5.351933
    32  H    6.068216   6.707726   7.225811   5.013138   4.607293
    33  O    7.587019   8.446463   8.608832   6.590517   6.207625
    34  H    7.941884   8.668969   9.064630   6.997997   6.265943
    35  C    7.193547   7.906681   8.153369   5.900038   6.291093
    36  H    8.079239   8.883547   8.961256   6.785196   7.252815
    37  H    6.621574   7.313040   7.499908   5.242803   6.068838
    38  H    7.640467   8.177085   8.706019   6.376741   6.468117
                   11         12         13         14         15
    11  H    0.000000
    12  H    2.307106   0.000000
    13  H    4.324078   2.211784   0.000000
    14  C    4.670583   3.327509   1.999547   0.000000
    15  C    6.043583   4.444661   2.540777   1.434318   0.000000
    16  H    6.483685   4.918883   3.059397   1.978479   1.092288
    17  H    6.540220   5.138279   3.383185   2.035144   1.092404
    18  H    6.347130   4.466463   2.326469   2.149353   1.091899
    19  C    4.597796   3.986280   3.325935   1.478151   2.526546
    20  O    5.738153   5.215020   4.356940   2.368806   2.857082
    21  C    3.389553   3.472051   3.701288   2.455483   3.785179
    22  C    3.877191   4.608535   5.078857   3.752290   4.982938
    23  H    3.444027   4.702977   5.601832   4.563262   5.874441
    24  N    5.229400   5.872695   6.041432   4.408897   5.404390
    25  H    5.776964   6.049855   5.843367   4.022561   4.803734
    26  C    6.297494   7.259829   7.574096   5.946543   6.899062
    27  C    7.496886   8.260237   8.298798   6.518124   7.241212
    28  O    8.529170   9.418745   9.507311   7.725883   8.417657
    29  O    7.667264   8.126275   7.886907   6.027799   6.567827
    30  H    6.263181   7.532803   8.116547   6.639749   7.693724
    31  C    6.954881   7.879785   8.152072   6.520673   7.425135
    32  H    6.257443   7.249297   7.682784   6.216191   7.232897
    33  O    7.682455   8.237176   8.136257   6.349456   7.018210
    34  H    7.729506   8.186451   8.049537   6.334045   6.979697
    35  C    7.987729   9.144764   9.573531   7.997801   8.921863
    36  H    8.913115   9.954423  10.212502   8.519232   9.318649
    37  H    7.778778   9.170235   9.815735   8.344082   9.371937
    38  H    8.190618   9.338047   9.804524   8.310462   9.243863
                   16         17         18         19         20
    16  H    0.000000
    17  H    1.870863   0.000000
    18  H    1.798417   1.720654   0.000000
    19  C    2.836642   2.657744   3.467569   0.000000
    20  O    2.967312   2.667288   3.918384   1.233443   0.000000
    21  C    4.178157   3.956953   4.555764   1.482773   2.423421
    22  C    5.305881   4.993004   5.830439   2.494257   2.928656
    23  H    6.245077   5.925967   6.638929   3.459892   4.004593
    24  N    5.620195   5.228503   6.367920   2.956341   2.798080
    25  H    4.995359   4.509179   5.808932   2.564734   2.044733
    26  C    7.028034   6.684146   7.892632   4.480936   4.158877
    27  C    7.417127   6.805101   8.237336   5.066354   4.458253
    28  O    8.576184   7.942115   9.414515   6.275627   5.631292
    29  O    6.791578   6.000985   7.542585   4.652484   3.889044
    30  H    7.896481   7.496395   8.638322   5.218236   5.064947
    31  C    7.326828   7.340179   8.470173   5.089951   4.678851
    32  H    7.092688   7.305625   8.245241   4.871397   4.679780
    33  O    6.788999   6.879750   8.102496   4.963694   4.265218
    34  H    6.614230   6.969371   8.059134   5.049101   4.403652
    35  C    8.799780   8.836787   9.965692   6.574519   6.176004
    36  H    9.174469   9.137783  10.386000   7.074827   6.505343
    37  H    9.349328   9.285046  10.378948   6.924441   6.664180
    38  H    9.016201   9.269287  10.284520   6.955132   6.608319
                   21         22         23         24         25
    21  C    0.000000
    22  C    1.381326   0.000000
    23  H    2.109951   1.084056   0.000000
    24  N    2.445811   1.361309   2.083544   0.000000
    25  H    2.595030   1.994050   2.927901   1.014250   0.000000
    26  C    3.937128   2.676366   2.924434   1.566982   2.192464
    27  C    4.821473   3.712394   4.099379   2.427500   2.508122
    28  O    6.003838   4.837138   5.090259   3.592136   3.714338
    29  O    4.691462   3.839122   4.437885   2.587093   2.223041
    30  H    4.415955   3.046066   2.894583   2.295634   3.099263
    31  C    4.706843   3.604928   3.894334   2.623941   3.066296
    32  H    4.352921   3.345015   3.541103   2.744859   3.329216
    33  O    5.000922   4.162257   4.747864   3.038286   3.012366
    34  H    5.167378   4.491972   5.101231   3.563874   3.526538
    35  C    6.091017   4.906155   4.971868   3.995925   4.504533
    36  H    6.754969   5.593839   5.770080   4.505800   4.832806
    37  H    6.227544   4.941076   4.776121   4.180141   4.860940
    38  H    6.493040   5.413739   5.473253   4.648526   5.151645
                   26         27         28         29         30
    26  C    0.000000
    27  C    1.537158   0.000000
    28  O    2.414043   1.210856   0.000000
    29  O    2.390395   1.183529   2.019882   0.000000
    30  H    1.092668   2.101523   2.607228   3.102621   0.000000
    31  C    1.561009   2.519059   3.043684   3.368868   2.154649
    32  H    2.125006   3.421568   4.059993   4.195631   2.548927
    33  O    2.409133   2.748724   3.297952   3.203656   3.309156
    34  H    3.160487   3.696564   4.264981   4.086747   4.023280
    35  C    2.638529   3.313385   3.301536   4.356167   2.705800
    36  H    3.100591   3.267512   2.964948   4.236614   3.288784
    37  H    2.753902   3.528361   3.426101   4.677022   2.373020
    38  H    3.488111   4.309485   4.364528   5.283283   3.595460
                   31         32         33         34         35
    31  C    0.000000
    32  H    1.092631   0.000000
    33  O    1.413217   2.081090   0.000000
    34  H    1.954594   2.164787   0.974093   0.000000
    35  C    1.500370   2.010993   2.416126   2.815350   0.000000
    36  H    2.085615   2.879864   2.452886   2.962225   1.092251
    37  H    2.137640   2.460177   3.335810   3.796027   1.091740
    38  H    2.103229   2.148482   2.802460   2.827719   1.091476
                   36         37         38
    36  H    0.000000
    37  H    1.865290   0.000000
    38  H    1.762636   1.765070   0.000000
 Stoichiometry    C12H15N2O8P(2-)
 Framework group  C1[X(C12H15N2O8P)]
 Deg. of freedom   108
 Full point group                 C1      NOp   1
 Largest Abelian subgroup         C1      NOp   1
 Largest concise Abelian subgroup C1      NOp   1
                         Standard orientation:                         
 ---------------------------------------------------------------------
 Center     Atomic      Atomic             Coordinates (Angstroms)
 Number     Number       Type             X           Y           Z
 ---------------------------------------------------------------------
      1          7    90000001        2.294172    3.431982    0.312729
      2          6    20001012        2.834621    2.210710    0.604768
      3          6    90000002        2.033287    1.155601    0.471741
      4          6    90000003        2.558297   -0.156075    0.800086
      5          8    90000004        2.592477   -0.949379   -0.398429
      6         15    90000005        2.785091   -2.541798   -0.274030
      7          8    90000006        3.709395   -2.934593    0.856195
      8          8    90000006        3.323724   -3.176235   -1.440073
      9          8    90000006        1.456471   -3.074600    0.025228
     10          1    90000007        2.019168   -0.692068    1.585143
     11          1    90000007        3.569932    0.015132    1.177660
     12          1    90000008        3.862276    2.291281    0.940137
     13          1    20001040        2.934427    4.213326    0.359772
     14          6    90000002        1.029176    3.744809   -0.025843
     15          6    90000003        0.687892    5.066968   -0.464805
     16          1    90000009        0.141870    5.462457    0.394579
     17          1    90000009        0.144036    4.951415   -1.405132
     18          1    90000009        1.527062    5.715664   -0.724095
     19          6    90000010        0.020706    2.664543   -0.056575
     20          8    90000006       -1.162142    2.894575   -0.319898
     21          6    90000002        0.635738    1.324212    0.097899
     22          6    90000011       -0.129285    0.176226    0.027680
     23          1    90000008        0.390236   -0.771349    0.113562
     24          7    90000012       -1.462246    0.113739   -0.241522
     25          1    20001040       -1.842679    0.985832   -0.592846
     26          6    90000003       -2.518461   -1.027523   -0.048219
     27          6    90000010       -3.485491   -0.802041   -1.221618
     28          8    90000006       -4.371439   -1.581576   -1.492899
     29          8    90000006       -3.454980    0.174018   -1.890288
     30          1    90000007       -2.186249   -2.063005   -0.154688
     31          6    90000003       -3.319092   -0.933247    1.288512
     32          1    90000007       -2.558642   -0.878094    2.071146
     33          8    20001022       -4.108998    0.237804    1.245251
     34          1    90000013       -4.074299    0.666831    2.119086
     35          6    90000003       -4.104404   -2.124420    1.752736
     36          1    90000009       -5.111026   -1.998724    1.347861
     37          1    90000009       -3.574358   -3.044963    1.500648
     38          1    90000009       -4.175574   -2.065494    2.840295
 ---------------------------------------------------------------------
 Rotational constants (GHZ):      0.2329542      0.1740383      0.1125536
 Leave Link  202 at Thu Nov 15 18:29:43 2018, MaxMem=   805306368 cpu:         0.0
 (Enter /opt/programs/gaussian/g09/d_pgi133/l301.exe)
 Standard basis: Dummy (5D, 7F)
 There are    40 symmetry adapted cartesian basis functions of A   symmetry.
 There are    40 symmetry adapted basis functions of A   symmetry.
    40 basis functions,    40 primitive gaussians,    40 cartesian basis functions
    30 alpha electrons       30 beta electrons
       nuclear repulsion energy       225.3338175255 Hartrees.
 IExCor=    0 DFT=F Ex=HF Corr=None ExCW=0 ScaHFX=  1.000000
 ScaDFX=  1.000000  1.000000  1.000000  1.000000 ScalE2=  1.000000  1.000000
 IRadAn=      0 IRanWt=     -1 IRanGd=            0 ICorTp=0 IEmpDi=  4
 NAtoms=   38 NActive=   38 NUniq=   38 SFac= 1.00D+00 NAtFMM=   60 NAOKFM=F Big=F
 Integral buffers will be    131072 words long.
 Raffenetti 1 integral format.
 Two-electron integral symmetry is turned on.
 Leave Link  301 at Thu Nov 15 18:29:43 2018, MaxMem=   805306368 cpu:         0.0
 (Enter /opt/programs/gaussian/g09/d_pgi133/l402.exe)
 AMBER calculation of energy.
 Energy per function type:
 Direct Coulomb + vdW (small)                           0.156509477
 Direct Coulomb (large)                                -2.050398972
 Direct vdW (large)                                  1391.343332372
 Non-direct Coulomb + vdW (small)                      -0.217103320
 Non-direct Coulomb (large)                             2.005518455
 Non-direct vdW (large)                             -1391.343332372
 Harmonic stretch I                                     0.018477121
 Harmonic bend I                                        0.055322261
 Amber torsion                                          0.015634259
 Improper torsion                                       0.000680761
 Energy per function class:
        Coulomb              -0.134666416
    Vanderwaals               0.029192055
     Stretching               0.018477121
        Bending               0.055322261
        Torsion               0.015634259
   Out-of-plane               0.000680761
 Energy=   -1.535995835E-02 NIter=   0.
 Dipole moment=      -0.141579      11.482866       5.257553
 Leave Link  402 at Thu Nov 15 18:29:43 2018, MaxMem=   805306368 cpu:         0.2
 (Enter /opt/programs/gaussian/g09/d_pgi133/l9999.exe)
 1\1\GINC-STATION1\SP\RAMBER\ZDO\C12H15N2O8P1(2-)\HFERNANDES\15-Nov-201
 8\0\\#p amber=softonly geom=connectivity\\optimizacao\\-2,1\N,-1,-2.29
 417179,0.31272886,3.43198205\C,-1,-2.83462102,0.60476825,2.21070981\C,
 -1,-2.03328699,0.47174141,1.15560071\C,-1,-2.55829715,0.80008636,-0.15
 60746\O,-1,-2.59247748,-0.39842867,-0.94937923\P,-1,-2.78509051,-0.274
 02978,-2.54179823\O,-1,-3.70939484,0.85619543,-2.93459302\O,-1,-3.3237
 2404,-1.44007312,-3.17623511\O,-1,-1.45647098,0.02522813,-3.07459986\H
 ,-1,-2.01916814,1.58514292,-0.69206752\H,-1,-3.56993219,1.17766014,0.0
 1513164\H,-1,-3.86227641,0.94013697,2.29128077\H,-1,-2.9344266,0.35977
 178,4.21332649\C,-1,-1.02917631,-0.02584278,3.74480859\C,-1,-0.6878923
 3,-0.46480527,5.06696785\H,-1,-0.14187008,0.39457884,5.46245652\H,-1,-
 0.14403601,-1.40513193,4.95141541\H,-1,-1.52706234,-0.72409507,5.71566
 398\C,-1,-0.02070573,-0.056575,2.66454303\O,-1,1.16214153,-0.3198985,2
 .89457478\C,-1,-0.63573843,0.09789891,1.32421165\C,-1,0.12928469,0.027
 67963,0.17622594\H,-1,-0.39023606,0.1135622,-0.77134926\N,-1,1.4622463
 5,-0.2415225,0.11373899\H,-1,1.84267883,-0.59284649,0.98583169\C,-1,2.
 51846073,-0.04821884,-1.02752269\C,-1,3.48549076,-1.22161819,-0.802041
 07\O,-1,4.37143916,-1.49289924,-1.58157606\O,-1,3.4549803,-1.89028778,
 0.17401801\H,-1,2.18624945,-0.15468752,-2.06300541\C,-1,3.31909248,1.2
 8851234,-0.93324706\H,-1,2.55864211,2.07114638,-0.87809391\O,-1,4.1089
 9778,1.24525064,0.23780437\H,-1,4.07429867,2.11908625,0.66683062\C,-1,
 4.10440351,1.75273632,-2.12441961\H,-1,5.11102575,1.34786079,-1.998724
 3\H,-1,3.57435832,1.5006484,-3.044963\H,-1,4.17557377,2.84029455,-2.06
 549384\\Version=ES64L-G09RevD.01\HF=-0.01536\RMSD=0.000e+00\Dipole=0.1
 415793,5.2575535,11.4828657\PG=C01 [X(C12H15N2O8P1)]\\@


 THERE IS NO CURE FOR BIRTH AND DEATH SAVE TO ENJOY THE INTERVAL.

                               -- GEORGE SANTAYANA
 Job cpu time:       0 days  0 hours  0 minutes  1.7 seconds.
 File lengths (MBytes):  RWF=      5 Int=      0 D2E=      0 Chk=      1 Scr=      1
 Normal termination of Gaussian 09 at Thu Nov 15 18:29:43 2018.
